# vtk DataFile Version 3.0
vtk output
ASCII
DATASET POLYDATA

POINTS 164 float
-1.385 0.423 -0.500
-1.348 0.415 -0.500
-1.311 0.406 -0.500
-1.274 0.398 -0.499
-1.238 0.389 -0.498
-1.201 0.381 -0.496
-1.164 0.372 -0.494
-1.127 0.364 -0.491
-1.091 0.356 -0.487
-1.054 0.347 -0.483

-1.017 0.339 -0.478
-0.981 0.330 -0.473
-0.944 0.322 -0.467
-0.908 0.314 -0.461
-0.872 0.305 -0.454
-0.836 0.297 -0.446
-0.800 0.289 -0.438
-0.764 0.281 -0.430
-0.728 0.272 -0.421
-0.692 0.264 -0.411
-0.657 0.256 -0.401
-0.621 0.248 -0.390
-0.586 0.240 -0.379
-0.551 0.232 -0.368
-0.516 0.224 -0.355
-0.481 0.216 -0.343
-0.446 0.208 -0.330
-0.412 0.200 -0.316
-0.378 0.192 -0.302
-0.343 0.184 -0.288
-0.309 0.176 -0.273
-0.276 0.168 -0.258
-0.242 0.161 -0.242
-0.209 0.153 -0.226
-0.175 0.145 -0.209
-0.142 0.138 -0.192
-0.109 0.130 -0.174
-0.077 0.122 -0.156
-0.044 0.115 -0.138
-0.012 0.107 -0.119
0.020 0.100 -0.100
-1.385 -0.423 -0.500
-1.348 -0.415 -0.500
-1.311 -0.406 -0.500
-1.274 -0.398 -0.499
-1.238 -0.389 -0.498
-1.201 -0.381 -0.496
-1.164 -0.372 -0.494
-1.127 -0.364 -0.491
-1.091 -0.356 -0.487
-1.054 -0.347 -0.483
-1.017 -0.339 -0.478
-0.981 -0.330 -0.473
-0.944 -0.322 -0.467
-0.908 -0.314 -0.461
-0.872 -0.305 -0.454
-0.836 -0.297 -0.446
-0.800 -0.289 -0.438
-0.764 -0.281 -0.430
-0.728 -0.272 -0.421
-0.692 -0.264 -0.411
-0.657 -0.256 -0.401
-0.621 -0.248 -0.390
-0.586 -0.240 -0.379
-0.551 -0.232 -0.368
-0.516 -0.224 -0.355
-0.481 -0.216 -0.343
-0.446 -0.208 -0.330
-0.412 -0.200 -0.316
-0.378 -0.192 -0.302
-0.343 -0.184 -0.288
-0.309 -0.176 -0.273
-0.276 -0.168 -0.258
-0.242 -0.161 -0.242
-0.209 -0.153 -0.226
-0.175 -0.145 -0.209
-0.142 -0.138 -0.192
-0.109 -0.130 -0.174
-0.077 -0.122 -0.156
-0.044 -0.115 -0.138
-0.012 -0.107 -0.119
0.020 -0.100 -0.100
1.385 0.423 -0.500
1.350 0.413 -0.500
1.315 0.403 -0.500
1.280 0.393 -0.500
1.245 0.382 -0.500
1.210 0.372 -0.500
1.175 0.362 -0.500
1.140 0.352 -0.500
1.105 0.342 -0.500
1.070 0.332 -0.500
1.035 0.322 -0.500
1.000 0.312 -0.500
0.965 0.302 -0.500
0.930 0.292 -0.500
0.895 0.282 -0.500
0.860 0.272 -0.500
0.824 0.262 -0.500
0.789 0.252 -0.500
0.754 0.242 -0.500
0.719 0.233 -0.500
0.684 0.223 -0.500
0.649 0.213 -0.500
0.614 0.203 -0.500
0.579 0.194 -0.500
0.543 0.184 -0.500
0.508 0.175 -0.500
0.473 0.165 -0.500
0.439 0.156 -0.492
0.408 0.148 -0.475
0.380 0.141 -0.452

0.356 0.134 -0.425
0.336 0.129 -0.395
0.317 0.124 -0.364
0.301 0.120 -0.332
0.286 0.116 -0.298
0.273 0.113 -0.265
0.261 0.110 -0.230
0.250 0.107 -0.195
0.239 0.105 -0.160
0.229 0.102 -0.125
0.220 0.100 -0.090
1.385 -0.423 -0.500
1.350 -0.413 -0.500
1.315 -0.403 -0.500
1.280 -0.393 -0.500
1.245 -0.382 -0.500
1.210 -0.372 -0.500
1.175 -0.362 -0.500
1.140 -0.352 -0.500
1.105 -0.342 -0.500
1.070 -0.332 -0.500
1.035 -0.322 -0.500
1.000 -0.312 -0.500
0.965 -0.302 -0.500
0.930 -0.292 -0.500
0.895 -0.282 -0.500
0.860 -0.272 -0.500
0.824 -0.262 -0.500
0.789 -0.252 -0.500
0.754 -0.242 -0.500
0.719 -0.233 -0.500
0.684 -0.223 -0.500
0.649 -0.213 -0.500
0.614 -0.203 -0.500
0.579 -0.194 -0.500
0.543 -0.184 -0.500
0.508 -0.175 -0.500
0.473 -0.165 -0.500
0.439 -0.156 -0.492
0.408 -0.148 -0.475
0.380 -0.141 -0.452
0.356 -0.134 -0.425
0.336 -0.129 -0.395
0.317 -0.124 -0.364
0.301 -0.120 -0.332
0.286 -0.116 -0.298
0.273 -0.113 -0.265
0.261 -0.110 -0.230
0.250 -0.107 -0.195
0.239 -0.105 -0.160
0.229 -0.102 -0.125
0.220 -0.100 -0.090

LINES 4 168
41 0 1 2 3 4 5 6 7 8 9 10 11 12 13 14 15 16 17 18 19 20 
21 22 23 24 25 26 27 28 29 30 31 32 33 34 35 36 37 38 39 40
41 41 42 43 44 45 46 47 48 49 50 51 52 53 54 55 56 57 58 59 60 
61 62 63 64 65 66 67 68 69 70 71 72 73 74 75 76 77 78 79 80 81

41 82 83 84 85 86 87 88 89 90 91 92 93 94 95 96 97 98 99 100 101 102
 103 104 105 106 107 108 109 110 111 112 113 114 115 116 117 118 119 120 121 122

41 123 124 125 126 127 128 129 130 131 132 133 134 135 136 137 138 139 140 141 142 143 144 145
 146 147 148 149 150 151 152 153 154 155 156 157 158 159 160 161 162 163

POINT_DATA 164
SCALARS Tension(N) float 1
LOOKUP_TABLE default
0.113 0.113 0.113 0.113 0.113 0.113 0.113 0.114 0.114 0.114
0.114 0.114 0.115 0.115 0.115 0.115 0.115 0.115 0.115 0.115
0.115 0.115 0.115 0.115 0.117 0.122 0.130 0.139 0.149 0.161
0.176 0.190 0.205 0.221 0.238 0.255 0.272 0.289 0.306 0.321
0.453
0.113 0.113 0.113 0.113 0.113 0.113 0.113 0.114 0.114 0.114
0.114 0.114 0.115 0.115 0.115 0.115 0.115 0.115 0.115 0.115
0.115 0.115 0.115 0.115 0.117 0.122 0.130 0.139 0.149 0.161
0.176 0.190 0.205 0.221 0.238 0.255 0.272 0.289 0.306 0.321
0.453
0.180 0.180 0.180 0.180 0.180 0.180 0.181 0.181 0.181 0.182
0.182 0.183 0.183 0.183 0.184 0.184 0.185 0.185 0.186 0.186
0.187 0.187 0.188 0.188 0.191 0.194 0.198 0.204 0.211 0.220
0.231 0.242 0.254 0.267 0.280 0.293 0.307 0.323 0.338 0.341
0.263
0.180 0.180 0.180 0.180 0.180 0.180 0.181 0.181 0.181 0.182
0.182 0.183 0.183 0.183 0.184 0.184 0.185 0.185 0.186 0.186
0.187 0.187 0.188 0.188 0.191 0.194 0.198 0.204 0.211 0.220
0.231 0.242 0.254 0.267 0.280 0.293 0.307 0.323 0.338 0.341
0.263
